 Q-Chem 5.4 (devel), Q-Chem, Inc., Pleasanton, CA (2021)
 Q-Chem 5.4.0 for Intel X86 EM64T Linux

User input:
--------------------------------------------------------------
$molecule
0 1
C	 0.99086	-0.26623	 0.96805
C	 1.2376		 0.25632	-0.38831
C	 0.27806	 0.2061		-1.40641
C	 0.57398	 0.66976	-2.6811
C	 1.83253	 1.19		-2.96838
C	 2.80033	 1.23014	-1.96961
C	 2.50617	 0.75861	-0.69674
C	-0.12407	-0.26101	 1.71287
C	-1.4311		 0.37695	 1.47448
C	-1.5684		 1.60958	 0.82512
C	-2.81965	 2.18904	 0.66446
C	-3.95929	 1.55397	 1.14953
C	-3.83451	 0.33697	 1.81193
C	-2.58146	-0.23805	 1.98011
H	 1.85126	-0.74471	 1.41512
H	-0.69523	-0.20771	-1.20136
H	-0.17704	 0.6181		-3.45426
H	 2.05918	 1.54927	-3.96002
H	 3.78257	 1.62243	-2.1829
H	 3.26412	 0.78679	 0.07195
H	-0.06223	-0.7936		 2.65172
H	-0.69341	 2.11897	 0.45746
H	-2.90503	 3.14215	 0.1657
H	-4.92998	 2.00713	 1.02204
H	-4.70945	-0.16001	 2.20143
H	-2.49144	-1.17974	 2.50099
$end

$rem
JOBTYPE			= opt
METHOD  		= rimp2
N_FROZEN_CORE           = fc
BASIS   		= 6-31G
AUX_BASIS		= rimp2-cc-pVDZ
GEOM_OPT_MAX_CYCLES 	= 250
MAX_SCF_CYCLES 		= 200
SYMMETRY 		= true
MEM_TOTAL 		= 20000
MEM_STATIC 		= 2000
$end
--------------------------------------------------------------

   14    -536.9459856407      4.93e-09  Convergence criterion met
 Total energy in the final basis set =     -536.9459856407
        RIMP2         total energy =      -538.1539866452 a.u.
   12    -536.9338486194      8.26e-09  Convergence criterion met
 Total energy in the final basis set =     -536.9338486194
        RIMP2         total energy =      -538.1616509029 a.u.
   12    -536.9347499348      5.61e-09  Convergence criterion met
 Total energy in the final basis set =     -536.9347499348
        RIMP2         total energy =      -538.1620454497 a.u.
   13    -536.9355418679      3.71e-09  Convergence criterion met
 Total energy in the final basis set =     -536.9355418679
        RIMP2         total energy =      -538.1623334714 a.u.
   11    -536.9346874285      7.68e-09  Convergence criterion met
 Total energy in the final basis set =     -536.9346874285
        RIMP2         total energy =      -538.1623637112 a.u.
   10    -536.9349255912      7.47e-09  Convergence criterion met
 Total energy in the final basis set =     -536.9349255912
        RIMP2         total energy =      -538.1623903110 a.u.

             Standard Nuclear Orientation (Angstroms)
    I     Atom           X                Y                Z
 ----------------------------------------------------------------
    1      C      -0.6793135154    -1.9928719945     0.0196554818
    2      C      -1.5744462288    -0.8045901462     0.1066326866
    3      C      -1.3138002371     0.2562626905     1.0149349236
    4      C      -2.1895890023     1.3576326770     1.1007304823
    5      C      -3.3480693812     1.4125457812     0.2927246177
    6      C      -3.6261330887     0.3553148437    -0.6014481441
    7      C      -2.7503424869    -0.7477181444    -0.6861519157
    8      C       0.6829345126    -1.9912515593    -0.0264177847
    9      C       1.5756670787    -0.8009766607    -0.1095138180
   10      C       1.3111445089     0.2644897573    -1.0112841001
   11      C       2.1851010995     1.3676063037    -1.0932170056
   12      C       3.3455185744     1.4198778259    -0.2878245096
   13      C       3.6274807534     0.3581118873     0.5997331030
   14      C       2.7535549995    -0.7466633462     0.6805479613
   15      H      -1.1844252987    -2.9641875785     0.0136462673
   16      H      -0.4279899754     0.2116713767     1.6510670818
   17      H      -1.9775828311     2.1637939108     1.8050655047
   18      H      -4.0261074309     2.2644326104     0.3629298347
   19      H      -4.5226399221     0.3862286974    -1.2229546073
   20      H      -2.9701112537    -1.5646451659    -1.3786817667
   21      H       1.1901919357    -2.9614736096    -0.0231357108
   22      H       0.4240064134     0.2220377535    -1.6456847924
   23      H       1.9700933956     2.1772981168    -1.7925763040
   24      H       4.0221043224     2.2731564990    -0.3550745951
   25      H       4.5255386548     0.3869254597     1.2190969597
   26      H       2.9763682497    -1.5671195729     1.3679210038
 ----------------------------------------------------------------

    8    -536.9349029104      9.13e-09  Convergence criterion met
 Total energy in the final basis set =     -536.9349029104
        RIMP2         total energy =      -538.1623907136 a.u.
 Final energy is   -538.16239071363736
 **  OPTIMIZATION CONVERGED  **

                    Orbital Energies (a.u.)
 --------------------------------------------------------------

 Alpha MOs
 -- Occupied --
-11.2542 -11.2541 -11.2493 -11.2479 -11.2443 -11.2443 -11.2433 -11.2433
-11.2428 -11.2428 -11.2420 -11.2420 -11.2406 -11.2406  -1.1530  -1.1419
 -1.0747  -1.0204  -1.0081  -1.0062  -0.9694  -0.8553  -0.8222  -0.8171
 -0.8071  -0.7497  -0.6992  -0.6751  -0.6496  -0.6361  -0.6217  -0.6122
 -0.5934  -0.5806  -0.5804  -0.5748  -0.5404  -0.4993  -0.4960  -0.4914
 -0.4865  -0.4783  -0.4683  -0.3950  -0.3400  -0.3311  -0.3257  -0.2864

          Ground-State Mulliken Net Atomic Charges

     Atom                 Charge (a.u.)
  ----------------------------------------
      1 C                    -0.142297
      2 C                    -0.023119
      3 C                    -0.138158
      4 C                    -0.157573
      5 C                    -0.148948
      6 C                    -0.155644
      7 C                    -0.160288
      8 C                    -0.142086
      9 C                    -0.022789
     10 C                    -0.138247
     11 C                    -0.157598
     12 C                    -0.148943
     13 C                    -0.155632
     14 C                    -0.160408
     15 H                     0.145685
     16 H                     0.167738
     17 H                     0.153518
     18 H                     0.151996
     19 H                     0.152402
     20 H                     0.154552
     21 H                     0.145621
     22 H                     0.167790
     23 H                     0.153513
     24 H                     0.151992
     25 H                     0.152399
     26 H                     0.154523
  ----------------------------------------
  Sum of atomic charges =     0.000000

                    Cartesian Multipole Moments
 -----------------------------------------------------------------
    Charge (ESU x 10^10)
                 0.0000
    Dipole Moment (Debye)
         X      -0.0003      Y       0.1485      Z       0.0005
       Tot       0.1485
    Quadrupole Moments (Debye-Ang)
        XX     -78.7035     XY      -0.0194     YY     -78.0841
        XZ       4.8421     YZ       0.0127     ZZ     -83.9874

 Total job time:  366.89s(wall), 1032.18s(cpu)
        *  Thank you very much for using Q-Chem.  Have a nice day.  *
