 Q-Chem 5.4 (devel), Q-Chem, Inc., Pleasanton, CA (2021)
 Q-Chem 5.4.0 for Intel X86 EM64T Linux

User input:
--------------------------------------------------------------
$molecule
0 1
C	 0.99086	-0.26623	 0.96805
C	 1.2376		 0.25632	-0.38831
C	 0.27806	 0.2061		-1.40641
C	 0.57398	 0.66976	-2.6811
C	 1.83253	 1.19		-2.96838
C	 2.80033	 1.23014	-1.96961
C	 2.50617	 0.75861	-0.69674
C	-0.12407	-0.26101	 1.71287
C	-1.4311		 0.37695	 1.47448
C	-1.5684		 1.60958	 0.82512
C	-2.81965	 2.18904	 0.66446
C	-3.95929	 1.55397	 1.14953
C	-3.83451	 0.33697	 1.81193
C	-2.58146	-0.23805	 1.98011
H	 1.85126	-0.74471	 1.41512
H	-0.69523	-0.20771	-1.20136
H	-0.17704	 0.6181		-3.45426
H	 2.05918	 1.54927	-3.96002
H	 3.78257	 1.62243	-2.1829
H	 3.26412	 0.78679	 0.07195
H	-0.06223	-0.7936		 2.65172
H	-0.69341	 2.11897	 0.45746
H	-2.90503	 3.14215	 0.1657
H	-4.92998	 2.00713	 1.02204
H	-4.70945	-0.16001	 2.20143
H	-2.49144	-1.17974	 2.50099
$end

$rem
JOBTYPE			= opt
METHOD  		= B3LYP
BASIS   		= 6-31G
GEOM_OPT_MAX_CYCLES 	= 250
MAX_SCF_CYCLES 		= 200
SYMMETRY 		= false
MEM_TOTAL 		= 6400
MEM_STATIC 		= 2000
$end
--------------------------------------------------------------

   14    -540.5814160800      4.93e-09  Convergence criterion met
 Total energy in the final basis set =     -540.5814160800
   11    -540.5829035356      7.80e-09  Convergence criterion met
 Total energy in the final basis set =     -540.5829035356
   11    -540.5828629613      5.42e-09  Convergence criterion met
 Total energy in the final basis set =     -540.5828629613
   11    -540.5831293998      3.82e-09  Convergence criterion met
 Total energy in the final basis set =     -540.5831293998
   10    -540.5831367003      2.35e-09  Convergence criterion met
 Total energy in the final basis set =     -540.5831367003
    9    -540.5831400892      7.99e-09  Convergence criterion met
 Total energy in the final basis set =     -540.5831400892

             Standard Nuclear Orientation (Angstroms)
    I     Atom           X                Y                Z
 ----------------------------------------------------------------
    1      C      -0.6746891364    -1.8276737502    -0.0089878829
    2      C      -1.6463500623    -0.7178360719     0.0621755801
    3      C      -1.4199188737     0.4576686487     0.8096472627
    4      C      -2.3977457023     1.4515877837     0.8911860988
    5      C      -3.6247795881     1.2964755139     0.2326758377
    6      C      -3.8709969220     0.1297939153    -0.5001569146
    7      C      -2.8962010998    -0.8685176045    -0.5748840287
    8      C       0.6785344663    -1.8259615258    -0.0000078351
    9      C       1.6476731954    -0.7136747859    -0.0659644767
   10      C       1.4178048394     0.4664133995    -0.8051198525
   11      C       2.3935954900     1.4627374478    -0.8815280421
   12      C       3.6220469224     1.3055573464    -0.2261697989
   13      C       3.8717831651     0.1343548465     0.4982208447
   14      C       2.8990142475    -0.8662768376     0.5678111064
   15      H      -1.1439950491    -2.8105408836    -0.0563168262
   16      H      -0.4807053883     0.5818845526     1.3362805908
   17      H      -2.2060027654     2.3454078938     1.4771814547
   18      H      -4.3824968367     2.0708895373     0.2995351022
   19      H      -4.8218163398    -0.0052593138    -1.0066047309
   20      H      -3.0960536832    -1.7771235546    -1.1364266711
   21      H       1.1502881180    -2.8078642382     0.0429149394
   22      H       0.4775511679     0.5924857146    -1.3294408913
   23      H       2.1991525598     2.3601230434    -1.4611492447
   24      H       4.3781380068     2.0819002509    -0.2889844668
   25      H       4.8237535479    -0.0023463509     1.0020527388
   26      H       3.1015695668    -1.7783165643     1.1227809607
 ----------------------------------------------------------------

    9    -540.5831407331      4.69e-09  Convergence criterion met
 Total energy in the final basis set =     -540.5831407331
 Final energy is   -540.58314073312920
 **  OPTIMIZATION CONVERGED  **

                    Orbital Energies (a.u.)
 --------------------------------------------------------------

 Alpha MOs
 -- Occupied --
-10.1969 -10.1969 -10.1900 -10.1893 -10.1865 -10.1865 -10.1860 -10.1860
-10.1856 -10.1856 -10.1855 -10.1855 -10.1837 -10.1837  -0.8617  -0.8544
 -0.7976  -0.7577  -0.7464  -0.7439  -0.7153  -0.6336  -0.6087  -0.6011
 -0.5958  -0.5531  -0.5223  -0.4948  -0.4773  -0.4639  -0.4527  -0.4429
 -0.4304  -0.4215  -0.4211  -0.4138  -0.3850  -0.3689  -0.3661  -0.3507
 -0.3435  -0.3372  -0.3315  -0.2983  -0.2571  -0.2518  -0.2468  -0.2091

          Ground-State Mulliken Net Atomic Charges

     Atom                 Charge (a.u.)
  ----------------------------------------
      1 C                    -0.161493
      2 C                     0.069811
      3 C                    -0.137391
      4 C                    -0.134288
      5 C                    -0.120094
      6 C                    -0.129391
      7 C                    -0.157246
      8 C                    -0.161362
      9 C                     0.070135
     10 C                    -0.137465
     11 C                    -0.134303
     12 C                    -0.120089
     13 C                    -0.129364
     14 C                    -0.157404
     15 H                     0.122301
     16 H                     0.144080
     17 H                     0.126635
     18 H                     0.125163
     19 H                     0.125590
     20 H                     0.126233
     21 H                     0.122222
     22 H                     0.144116
     23 H                     0.126631
     24 H                     0.125164
     25 H                     0.125588
     26 H                     0.126222
  ----------------------------------------
  Sum of atomic charges =     0.000000

                    Cartesian Multipole Moments
 -----------------------------------------------------------------
    Charge (ESU x 10^10)
                -0.0000
    Dipole Moment (Debye)
         X      -0.0002      Y       0.1580      Z       0.0006
       Tot       0.1580
    Quadrupole Moments (Debye-Ang)
        XX     -74.0644     XY      -0.0158     YY     -75.0269
        XZ       4.0414     YZ       0.0288     ZZ     -83.7659

 Total job time:  128.91s(wall), 358.75s(cpu)
        *  Thank you very much for using Q-Chem.  Have a nice day.  *
