 Q-Chem 5.4 (devel), Q-Chem, Inc., Pleasanton, CA (2021)
 Q-Chem 5.4.0 for Intel X86 EM64T Linux

User input:
--------------------------------------------------------------
$molecule
0 1
 C                 -1.42235400    0.95064340    0.38484840
 C                 -2.68142010    1.65750270    0.10061490
 C                 -2.72832573    2.92115567   -0.49192406
 C                 -3.93980454    3.53953622   -0.75137052
 C                 -5.13287995    2.91488728   -0.41646156
 C                 -5.10259398    1.66661635    0.18523941
 C                 -3.88987428    1.04829400    0.44291145
 C                 -0.25343480    1.13267340   -0.23687830
 C                  1.00782360    0.43216310    0.05333690
 C                  1.58324376    0.39530919    1.32520996
 C                  2.76556431   -0.28937351    1.55039611
 C                  3.40645066   -0.94518577    0.50878730
 C                  2.85543791   -0.90579348   -0.76242717
 C                  1.67153600   -0.22187120   -0.98608345
 H                 -1.49408230    0.20263320    1.15337710
 H                 -1.81841155    3.43264597   -0.73611540
 H                 -3.95262716    4.51143774   -1.20569115
 H                 -6.06992556    3.39746244   -0.61514103
 H                 -6.01825071    1.17603788    0.45342945
 H                 -3.87725795    0.08057735    0.90796621
 H                 -0.19899920    1.83039680   -1.05267250
 H                  1.11836723    0.91575020    2.13898324
 H                  3.19114016   -0.30322720    2.53520928
 H                  4.32412104   -1.47174532    0.68492410
 H                  3.34466072   -1.40441432   -1.57671107
 H                  1.25210265   -0.19856160   -1.97423450
$end

$rem
JOBTYPE			= opt
METHOD  		= B3LYP
BASIS   		= 6-31G*
GEOM_OPT_MAX_CYCLES 	= 250
MAX_SCF_CYCLES 		= 200
SYMMETRY 		= false
MEM_TOTAL 		= 6400
MEM_STATIC 		= 2000
$end
--------------------------------------------------------------

   14    -540.7023368341      3.41e-09  Convergence criterion met
 Total energy in the final basis set =     -540.7023368341
   12    -540.7067381188      5.54e-09  Convergence criterion met
 Total energy in the final basis set =     -540.7067381188
   11    -540.7080276927      9.43e-09  Convergence criterion met
 Total energy in the final basis set =     -540.7080276927
   11    -540.7089675547      7.31e-09  Convergence criterion met
 Total energy in the final basis set =     -540.7089675547
   12    -540.7095998867      2.29e-09  Convergence criterion met
 Total energy in the final basis set =     -540.7095998867
   12    -540.7098511060      2.57e-09  Convergence criterion met
 Total energy in the final basis set =     -540.7098511060
   10    -540.7098823901      5.26e-09  Convergence criterion met
 Total energy in the final basis set =     -540.7098823901
   10    -540.7099006546      4.33e-09  Convergence criterion met
 Total energy in the final basis set =     -540.7099006546
   10    -540.7099144686      3.79e-09  Convergence criterion met
 Total energy in the final basis set =     -540.7099144686
   11    -540.7099492681      5.73e-09  Convergence criterion met
 Total energy in the final basis set =     -540.7099492681
   11    -540.7099562103      5.32e-09  Convergence criterion met
 Total energy in the final basis set =     -540.7099562103
   10    -540.7099645214      7.28e-09  Convergence criterion met
 Total energy in the final basis set =     -540.7099645214
    9    -540.7099717656      4.43e-09  Convergence criterion met
 Total energy in the final basis set =     -540.7099717656

             Standard Nuclear Orientation (Angstroms)
    I     Atom           X                Y                Z
 ----------------------------------------------------------------
    1      C       0.4948360727    -0.4564198970    -0.0321837004
    2      C       1.9384975595    -0.2013478033    -0.0272301938
    3      C       2.5023273066     1.0888592046     0.0260311104
    4      C       3.8816888907     1.2682789302     0.0313363484
    5      C       4.7407313197     0.1658426140    -0.0175033051
    6      C       4.2012290811    -1.1195834731    -0.0728564535
    7      C       2.8192416549    -1.2981275433    -0.0780067804
    8      C      -0.4947978727     0.4573542620     0.0390220943
    9      C      -1.9384814134     0.2020473926     0.0337400915
   10      C      -2.5019725234    -1.0879737282    -0.0269518389
   11      C      -3.8812958328    -1.2677313517    -0.0323861817
   12      C      -4.7405572035    -0.1658197754     0.0235100100
   13      C      -4.2013793059     1.1194174184     0.0861422411
   14      C      -2.8194418490     1.2983106437     0.0913607202
   15      H       0.2297507126    -1.5108137281    -0.1001973883
   16      H       1.8556975978     1.9606113973     0.0618495676
   17      H       4.2907544137     2.2745549854     0.0726691955
   18      H       5.8177418222     0.3097011826    -0.0133326604
   19      H       4.8565579851    -1.9858846994    -0.1120655050
   20      H       2.4073807010    -2.3040515296    -0.1204727154
   21      H      -0.2297817057     1.5117313111     0.1076359784
   22      H      -1.8550991919    -1.9592650865    -0.0686846787
   23      H      -4.2901617710    -2.2738243261    -0.0796959453
   24      H      -5.8175340480    -0.3099261093     0.0188363098
   25      H      -4.8569337729     1.9852748761     0.1309285108
   26      H      -2.4077554303     2.3040555890     0.1394016102
 ----------------------------------------------------------------

    8    -540.7099726862      6.15e-09  Convergence criterion met
 Total energy in the final basis set =     -540.7099726862
 Final energy is   -540.70997268623660
 **  OPTIMIZATION CONVERGED  **

                    Orbital Energies (a.u.)
 --------------------------------------------------------------

 Alpha MOs
 -- Occupied --
-10.1987 -10.1987 -10.1921 -10.1913 -10.1899 -10.1899 -10.1895 -10.1895
-10.1889 -10.1889 -10.1886 -10.1886 -10.1886 -10.1886  -0.8584  -0.8521
 -0.7966  -0.7571  -0.7435  -0.7432  -0.7075  -0.6342  -0.6057  -0.6044
 -0.5867  -0.5510  -0.5132  -0.5122  -0.4696  -0.4620  -0.4539  -0.4364
 -0.4270  -0.4187  -0.4150  -0.4101  -0.3761  -0.3729  -0.3655  -0.3535
 -0.3420  -0.3393  -0.3321  -0.3074  -0.2614  -0.2496  -0.2495  -0.2024

          Ground-State Mulliken Net Atomic Charges

     Atom                 Charge (a.u.)
  ----------------------------------------
      1 C                    -0.188660
      2 C                     0.181978
      3 C                    -0.179864
      4 C                    -0.130769
      5 C                    -0.129489
      6 C                    -0.129338
      7 C                    -0.197941
      8 C                    -0.188638
      9 C                     0.181930
     10 C                    -0.179854
     11 C                    -0.130770
     12 C                    -0.129485
     13 C                    -0.129352
     14 C                    -0.197928
     15 H                     0.127081
     16 H                     0.129536
     17 H                     0.130206
     18 H                     0.129849
     19 H                     0.130252
     20 H                     0.127164
     21 H                     0.127073
     22 H                     0.129544
     23 H                     0.130209
     24 H                     0.129844
     25 H                     0.130253
     26 H                     0.127168
  ----------------------------------------
  Sum of atomic charges =     0.000000

                    Cartesian Multipole Moments
 -----------------------------------------------------------------
    Charge (ESU x 10^10)
                -0.0000
    Dipole Moment (Debye)
         X       0.0001      Y      -0.0000      Z      -0.0005
       Tot       0.0005
    Quadrupole Moments (Debye-Ang)
        XX     -70.7411     XY       0.0220     YY     -71.8309
        XZ      -0.0673     YZ       0.7798     ZZ     -87.8685

 Total job time:  441.30s(wall), 1260.60s(cpu)
        *  Thank you very much for using Q-Chem.  Have a nice day.  *
