 Q-Chem 5.4 (devel), Q-Chem, Inc., Pleasanton, CA (2021)
 Q-Chem 5.4.0 for Intel X86 EM64T Linux

User input:
--------------------------------------------------------------
$molecule
0 1
 C                 -1.42235400    0.95064340    0.38484840
 C                 -2.68142010    1.65750270    0.10061490
 C                 -2.72832573    2.92115567   -0.49192406
 C                 -3.93980454    3.53953622   -0.75137052
 C                 -5.13287995    2.91488728   -0.41646156
 C                 -5.10259398    1.66661635    0.18523941
 C                 -3.88987428    1.04829400    0.44291145
 C                 -0.25343480    1.13267340   -0.23687830
 C                  1.00782360    0.43216310    0.05333690
 C                  1.58324376    0.39530919    1.32520996
 C                  2.76556431   -0.28937351    1.55039611
 C                  3.40645066   -0.94518577    0.50878730
 C                  2.85543791   -0.90579348   -0.76242717
 C                  1.67153600   -0.22187120   -0.98608345
 H                 -1.49408230    0.20263320    1.15337710
 H                 -1.81841155    3.43264597   -0.73611540
 H                 -3.95262716    4.51143774   -1.20569115
 H                 -6.06992556    3.39746244   -0.61514103
 H                 -6.01825071    1.17603788    0.45342945
 H                 -3.87725795    0.08057735    0.90796621
 H                 -0.19899920    1.83039680   -1.05267250
 H                  1.11836723    0.91575020    2.13898324
 H                  3.19114016   -0.30322720    2.53520928
 H                  4.32412104   -1.47174532    0.68492410
 H                  3.34466072   -1.40441432   -1.57671107
 H                  1.25210265   -0.19856160   -1.97423450
$end

$rem
JOBTYPE			= opt
METHOD  		= rimp2
N_FROZEN_CORE           = fc
BASIS   		= 6-31G*
AUX_BASIS		= rimp2-cc-pVDZ
GEOM_OPT_MAX_CYCLES 	= 250
MAX_SCF_CYCLES 		= 200
SYMMETRY 		= true
MEM_TOTAL 		= 20000
MEM_STATIC 		= 2000
$end
--------------------------------------------------------------

   14    -537.1365348967      6.86e-09  Convergence criterion met
 Total energy in the final basis set =     -537.1365348967
        RIMP2         total energy =      -538.8982661549 a.u.
   13    -537.1339934948      4.13e-09  Convergence criterion met
 Total energy in the final basis set =     -537.1339934948
        RIMP2         total energy =      -538.9028441136 a.u.
   12    -537.1344254783      9.53e-09  Convergence criterion met
 Total energy in the final basis set =     -537.1344254783
        RIMP2         total energy =      -538.9037001173 a.u.
   13    -537.1349372948      3.97e-09  Convergence criterion met
 Total energy in the final basis set =     -537.1349372948
        RIMP2         total energy =      -538.9041781217 a.u.
   12    -537.1353769514      6.71e-09  Convergence criterion met
 Total energy in the final basis set =     -537.1353769514
        RIMP2         total energy =      -538.9043355820 a.u.
   12    -537.1355023800      4.19e-09  Convergence criterion met
 Total energy in the final basis set =     -537.1355023800
        RIMP2         total energy =      -538.9043749991 a.u.
   10    -537.1355045917      6.97e-09  Convergence criterion met
 Total energy in the final basis set =     -537.1355045917
        RIMP2         total energy =      -538.9043792801 a.u.

             Standard Nuclear Orientation (Angstroms)
    I     Atom           X                Y                Z
 ----------------------------------------------------------------
    1      C       0.4736817624    -0.4795680503    -0.0331631896
    2      C       1.9184029824    -0.2369963568    -0.0428466855
    3      C       2.4746920632     0.9592521297    -0.5298171947
    4      C       3.8519509694     1.1689185919    -0.4939015869
    5      C       4.7034937358     0.1822407352     0.0109349076
    6      C       4.1659228567    -1.0196891264     0.4769221874
    7      C       2.7877054374    -1.2270943996     0.4464288134
    8      C      -0.4740571682     0.4831127034     0.0164112298
    9      C      -1.9188021492     0.2405668039     0.0050558706
   10      C      -2.4817737128    -0.9055058001    -0.5841275070
   11      C      -3.8583019602    -1.1200094296    -0.5479669731
   12      C      -4.7026661822    -0.1863778907     0.0593708496
   13      C      -4.1586880133     0.9673342180     0.6284434529
   14      C      -2.7811439035     1.1790847617     0.5974499291
   15      H       0.1620946998    -1.5250242875    -0.0259608686
   16      H       1.8247669174     1.7162683905    -0.9630223692
   17      H       4.2650556010     2.0988193374    -0.8780949068
   18      H       5.7783346771     0.3451625848     0.0303736158
   19      H       4.8211148766    -1.7965479845     0.8642192669
   20      H       2.3721676778    -2.1632149213     0.8163224630
   21      H      -0.1621765258     1.5240695126     0.1125589196
   22      H      -1.8378341857    -1.6173449251    -1.0957856292
   23      H      -4.2767469898    -2.0103063684    -1.0119229496
   24      H      -5.7770297505    -0.3523519743     0.0792544181
   25      H      -4.8084078827     1.7035090388     1.0960929691
   26      H      -2.3605126360     2.0769634625     1.0476674087
 ----------------------------------------------------------------

    8    -537.1355014779      9.45e-09  Convergence criterion met
 Total energy in the final basis set =     -537.1355014779
        RIMP2         total energy =      -538.9043797447 a.u.
 Final energy is   -538.90437974473014
 **  OPTIMIZATION CONVERGED  **

                    Orbital Energies (a.u.)
 --------------------------------------------------------------

 Alpha MOs
 -- Occupied --
-11.2438 -11.2438 -11.2392 -11.2377 -11.2362 -11.2361 -11.2358 -11.2358
-11.2345 -11.2345 -11.2341 -11.2341 -11.2338 -11.2338  -1.1560  -1.1474
 -1.0781  -1.0267  -1.0101  -1.0100  -0.9641  -0.8608  -0.8244  -0.8234
 -0.8009  -0.7521  -0.6965  -0.6927  -0.6483  -0.6385  -0.6262  -0.6079
 -0.5930  -0.5822  -0.5796  -0.5754  -0.5319  -0.5077  -0.5056  -0.4954
 -0.4890  -0.4839  -0.4798  -0.4109  -0.3407  -0.3323  -0.3321  -0.2758

          Ground-State Mulliken Net Atomic Charges

     Atom                 Charge (a.u.)
  ----------------------------------------
      1 C                    -0.187961
      2 C                     0.068461
      3 C                    -0.193457
      4 C                    -0.175403
      5 C                    -0.169765
      6 C                    -0.174631
      7 C                    -0.199184
      8 C                    -0.188101
      9 C                     0.068221
     10 C                    -0.193428
     11 C                    -0.175406
     12 C                    -0.169763
     13 C                    -0.174634
     14 C                    -0.199086
     15 H                     0.166817
     16 H                     0.174437
     17 H                     0.172923
     18 H                     0.172726
     19 H                     0.173301
     20 H                     0.171855
     21 H                     0.166831
     22 H                     0.174460
     23 H                     0.172918
     24 H                     0.172721
     25 H                     0.173292
     26 H                     0.171853
  ----------------------------------------
  Sum of atomic charges =     0.000000

                    Cartesian Multipole Moments
 -----------------------------------------------------------------
    Charge (ESU x 10^10)
                -0.0000
    Dipole Moment (Debye)
         X       0.0010      Y      -0.0004      Z       0.0118
       Tot       0.0118
    Quadrupole Moments (Debye-Ang)
        XX     -71.6428     XY       0.3810     YY     -75.0446
        XZ      -0.0894     YZ       0.5154     ZZ     -86.1753

 Total job time:  335.97s(wall), 1832.02s(cpu)
        *  Thank you very much for using Q-Chem.  Have a nice day.  *
